 opt
GAUSSIAN             10 MOL ORBITALS    126 PRIMITIVES        3 NUCLEI
  O    1    (CENTRE  1)   0.00000000 -0.00000000  0.22237385  CHARGE =  8.0
  H    2    (CENTRE  2)  -0.00000000  1.44188320 -0.88949539  CHARGE =  1.0
  H    3    (CENTRE  3)  -0.00000000 -1.44188320 -0.88949539  CHARGE =  1.0
CENTRE ASSIGNMENTS    1  1  1  1  1  1  1  1  1  1  1  1  1  1  1  1  1  1  1  1
CENTRE ASSIGNMENTS    1  1  1  1  1  1  1  1  1  1  1  1  1  1  1  1  1  1  1  1
CENTRE ASSIGNMENTS    1  1  1  1  1  1  1  1  1  1  1  1  1  1  1  1  1  1  1  1
CENTRE ASSIGNMENTS    1  1  1  1  1  1  1  1  1  1  1  1  2  2  2  2  2  2  2  2
CENTRE ASSIGNMENTS    2  2  2  2  2  2  2  2  2  2  2  2  2  2  2  2  2  2  2  3
CENTRE ASSIGNMENTS    3  3  3  3  3  3  3  3  3  3  3  3  3  3  3  3  3  3  3  3
CENTRE ASSIGNMENTS    3  3  3  3  3  3
TYPE ASSIGNMENTS      1  1  1  1  1  1  1  1  1  1  1  1  1  1  1  1  2  2  2  3
TYPE ASSIGNMENTS      3  3  4  4  4  2  3  4  2  3  4  2  3  4  5  6  7  8  9 10
TYPE ASSIGNMENTS      5  6  7  8  9 10  5  6  7  8  9 10 11 12 13 17 14 15 18 19
TYPE ASSIGNMENTS     16 20 11 12 13 17 14 15 18 19 16 20  1  1  1  1  1  1  2  3
TYPE ASSIGNMENTS      4  2  3  4  2  3  4  5  6  7  8  9 10  5  6  7  8  9 10  1
TYPE ASSIGNMENTS      1  1  1  1  1  2  3  4  2  3  4  2  3  4  5  6  7  8  9 10
TYPE ASSIGNMENTS      5  6  7  8  9 10
EXPONENTS  0.1533000D+05 0.2299000D+04 0.5224000D+03 0.1473000D+03 0.4755000D+02
EXPONENTS  0.1676000D+02 0.6207000D+01 0.5224000D+03 0.1473000D+03 0.4755000D+02
EXPONENTS  0.1676000D+02 0.6207000D+01 0.6882000D+00 0.1752000D+01 0.2384000D+00
EXPONENTS  0.7376000D-01 0.3446000D+02 0.7749000D+01 0.2280000D+01 0.3446000D+02
EXPONENTS  0.7749000D+01 0.2280000D+01 0.3446000D+02 0.7749000D+01 0.2280000D+01
EXPONENTS  0.7156000D+00 0.7156000D+00 0.7156000D+00 0.2140000D+00 0.2140000D+00
EXPONENTS  0.2140000D+00 0.5974000D-01 0.5974000D-01 0.5974000D-01 0.2314000D+01
EXPONENTS  0.2314000D+01 0.2314000D+01 0.2314000D+01 0.2314000D+01 0.2314000D+01
EXPONENTS  0.6450000D+00 0.6450000D+00 0.6450000D+00 0.6450000D+00 0.6450000D+00
EXPONENTS  0.6450000D+00 0.2140000D+00 0.2140000D+00 0.2140000D+00 0.2140000D+00
EXPONENTS  0.2140000D+00 0.2140000D+00 0.1428000D+01 0.1428000D+01 0.1428000D+01
EXPONENTS  0.1428000D+01 0.1428000D+01 0.1428000D+01 0.1428000D+01 0.1428000D+01
EXPONENTS  0.1428000D+01 0.1428000D+01 0.5000000D+00 0.5000000D+00 0.5000000D+00
EXPONENTS  0.5000000D+00 0.5000000D+00 0.5000000D+00 0.5000000D+00 0.5000000D+00
EXPONENTS  0.5000000D+00 0.5000000D+00 0.3387000D+02 0.5095000D+01 0.1159000D+01
EXPONENTS  0.3258000D+00 0.1027000D+00 0.2526000D-01 0.1407000D+01 0.1407000D+01
EXPONENTS  0.1407000D+01 0.3880000D+00 0.3880000D+00 0.3880000D+00 0.1020000D+00
EXPONENTS  0.1020000D+00 0.1020000D+00 0.1057000D+01 0.1057000D+01 0.1057000D+01
EXPONENTS  0.1057000D+01 0.1057000D+01 0.1057000D+01 0.2470000D+00 0.2470000D+00
EXPONENTS  0.2470000D+00 0.2470000D+00 0.2470000D+00 0.2470000D+00 0.3387000D+02
EXPONENTS  0.5095000D+01 0.1159000D+01 0.3258000D+00 0.1027000D+00 0.2526000D-01
EXPONENTS  0.1407000D+01 0.1407000D+01 0.1407000D+01 0.3880000D+00 0.3880000D+00
EXPONENTS  0.3880000D+00 0.1020000D+00 0.1020000D+00 0.1020000D+00 0.1057000D+01
EXPONENTS  0.1057000D+01 0.1057000D+01 0.1057000D+01 0.1057000D+01 0.1057000D+01
EXPONENTS  0.2470000D+00 0.2470000D+00 0.2470000D+00 0.2470000D+00 0.2470000D+00
EXPONENTS  0.2470000D+00
MO    1     MO 0.0        OCC NO =    1.9999407  ORB. ENERGY =    0.000000
  0.49858717D+00  0.92928451D+00  0.15757325D+01  0.23847035D+01  0.29747297D+01
  0.25527607D+01  0.97757171D+00  0.63822014D-04  0.68476832D-03  0.25241850D-02
  0.73805688D-02  0.88939443D-02 -0.10713698D-01  0.53214197D-01 -0.45233012D-02
 -0.41706204D-03  0.39499776D-13  0.38301496D-13  0.25837963D-13  0.11008825D-13
  0.10674857D-13  0.72011954D-14 -0.21362931D-01 -0.20714857D-01 -0.13974120D-01
  0.81069574D-14 -0.13969383D-13  0.35689418D-02  0.97240047D-15 -0.27511349D-14
  0.44329234D-03  0.19874041D-16  0.31579984D-16  0.57818070D-05  0.18516791D-01
  0.18672979D-01  0.18821848D-01 -0.85015954D-15 -0.22253296D-14 -0.38400540D-14
  0.62666477D-02  0.59830884D-02  0.61447139D-02  0.62915383D-15  0.24392374D-16
  0.44770113D-14  0.32856395D-03  0.24688962D-03  0.27447150D-03  0.17505912D-15
  0.11524336D-15  0.11386597D-14  0.97872435D-15  0.82942455D-14 -0.80351305D-02
  0.17784701D-14  0.76423297D-14 -0.80206298D-02  0.17901508D-14  0.76971240D-14
 -0.83822794D-02  0.12274666D-15  0.15951569D-15 -0.20378810D-14 -0.80067033D-03
 -0.14873879D-15 -0.51341816D-16 -0.87905515D-03 -0.19368259D-16 -0.32788338D-15
 -0.58012348D-03 -0.52403803D-15  0.14878994D-03  0.26834879D-03  0.39568014D-03
  0.29777559D-03  0.15190937D-03  0.90249668D-05  0.42128849D-15 -0.59805756D-03
  0.31219592D-03  0.30751084D-15  0.12493758D-03 -0.16250931D-03  0.53013237D-16
  0.75857771D-05 -0.21155493D-04  0.33947230D-04  0.17076920D-03 -0.69740553D-04
 -0.18689585D-15  0.10500722D-15  0.17292709D-03  0.20788450D-04 -0.34614482D-04
 -0.23499533D-05 -0.39178405D-16  0.13910073D-16  0.72922276D-04  0.14878994D-03
  0.26834879D-03  0.39568014D-03  0.29777559D-03  0.15190937D-03  0.90249668D-05
  0.28905423D-15  0.59805756D-03  0.31219592D-03  0.11892457D-14 -0.12493758D-03
 -0.16250931D-03  0.14429390D-15 -0.75857771D-05 -0.21155493D-04  0.33947230D-04
  0.17076920D-03 -0.69740553D-04  0.10675091D-14  0.77449200D-15 -0.17292709D-03
  0.20788450D-04 -0.34614482D-04 -0.23499533D-05  0.23759161D-15  0.18351790D-15
 -0.72922276D-04
MO    2     MO 0.0        OCC NO =    1.9874161  ORB. ENERGY =    0.000000
 -0.10659377D+00 -0.19867327D+00 -0.33687844D+00 -0.50982970D+00 -0.63597236D+00
 -0.54575890D+00 -0.20899667D+00 -0.17508276D-02 -0.18785231D-01 -0.69245900D-01
 -0.20247095D+00 -0.24398734D+00  0.29390861D+00  0.15666778D+00  0.82868793D-01
  0.63963754D-02  0.50691325D-13  0.49153533D-13  0.33158683D-13  0.26369399D-14
  0.25569447D-14  0.17248998D-14  0.27162884D+00  0.26338860D+00  0.17768039D+00
  0.10574019D-13 -0.33293732D-15  0.56199354D-01  0.19045899D-14 -0.27219454D-13
  0.11787241D-01  0.73420579D-16  0.25346767D-14  0.16305430D-03 -0.27445682D-02
  0.32314620D-01  0.59017510D-02 -0.69894408D-15 -0.26503656D-14  0.18609870D-14
 -0.35406722D-02  0.18449551D-02 -0.37582025D-02  0.30772039D-15 -0.43320414D-15
  0.15726389D-14  0.75481036D-03 -0.43171342D-04 -0.15742601D-03 -0.29814697D-16
 -0.61988283D-16  0.15534386D-13  0.15563832D-14  0.18917631D-15  0.93921004D-02
  0.27743703D-14 -0.78209804D-14  0.11512555D-01  0.23082569D-14  0.14632205D-13
 -0.75529217D-02 -0.44007259D-16  0.13933815D-15 -0.18256982D-14  0.27668554D-02
  0.12757475D-15  0.44678945D-14  0.22453842D-02  0.11000662D-15 -0.52441423D-14
  0.39188295D-02 -0.14937112D-15  0.14846745D-01  0.26776716D-01  0.39482253D-01
  0.11581516D-01 -0.42394716D-02 -0.92230943D-04  0.59536611D-15 -0.15888103D-01
  0.16961975D-01  0.32325901D-15 -0.29094359D-02  0.43958035D-02  0.54636843D-16
  0.38717341D-03  0.63910757D-04  0.65591898D-04  0.14287692D-02  0.25130087D-02
 -0.40298217D-15  0.20020966D-15 -0.50042974D-02 -0.43210388D-04 -0.18343305D-04
 -0.64287560D-04 -0.14516631D-16  0.83400206D-17 -0.18013953D-03  0.14846745D-01
  0.26776716D-01  0.39482253D-01  0.11581516D-01 -0.42394716D-02 -0.92230943D-04
  0.52904992D-15  0.15888103D-01  0.16961975D-01  0.47430717D-15  0.29094359D-02
  0.43958035D-02 -0.25451688D-18 -0.38717341D-03  0.63910757D-04  0.65591898D-04
  0.14287692D-02  0.25130087D-02  0.92301623D-15  0.64869997D-15  0.50042974D-02
 -0.43210388D-04 -0.18343305D-04 -0.64287560D-04 -0.16127559D-16 -0.56124559D-16
  0.18013953D-03
MO    3     MO 0.0        OCC NO =    1.9788041  ORB. ENERGY =    0.000000
 -0.72678407D-14 -0.13546060D-13 -0.22969248D-13 -0.34761515D-13 -0.43362250D-13
 -0.37211262D-13 -0.14249936D-13  0.33307805D-16  0.35737089D-15  0.13173364D-14
  0.38518143D-14  0.46416236D-14 -0.55913275D-14 -0.67697634D-14 -0.10556661D-12
 -0.34671786D-13  0.17807610D+01  0.17267391D+01  0.11648480D+01  0.13022147D-13
  0.12627102D-13  0.85181687D-14  0.18007239D-12  0.17460965D-12  0.11779064D-12
  0.38186452D+00  0.43706858D-13  0.77854767D-13  0.63242751D-01  0.34413882D-13
  0.25703617D-13  0.19100318D-02  0.33558495D-14  0.23282991D-14 -0.75920530D-14
 -0.81800024D-15 -0.73535210D-14  0.33511791D-15 -0.63861557D-01  0.84006943D-14
  0.11360309D-13 -0.17116164D-13 -0.10486532D-13  0.18630043D-15 -0.21074154D-01
 -0.36175127D-13  0.40026621D-14 -0.21551364D-14 -0.15415572D-14  0.13034128D-15
 -0.17414061D-02 -0.10267052D-13  0.43622051D-01  0.74495588D-14  0.10271553D-13
  0.78061191D-01  0.40552576D-15  0.85221340D-14  0.65323464D-01  0.17253696D-13
  0.20482353D-13 -0.51128042D-15  0.56341882D-02  0.91309196D-14  0.12210822D-13
  0.84121358D-02  0.45406020D-14  0.76710740D-14  0.77815910D-02  0.92095328D-14
  0.19832505D-13  0.98812879D-16 -0.29481662D-14 -0.53171392D-14 -0.78401186D-14
 -0.31828058D-14 -0.77061087D-14 -0.20037620D-14  0.23450209D-01  0.59159869D-14
 -0.20673655D-15  0.11335107D-01 -0.77285015D-14 -0.21780280D-14  0.21274363D-02
  0.31223191D-14 -0.57913340D-15  0.28066306D-14 -0.12197296D-14  0.79620143D-15
 -0.99193581D-02  0.73819505D-02  0.49916720D-14 -0.16047857D-14 -0.43351579D-15
 -0.16902930D-14 -0.90315501D-03  0.47940984D-03  0.46220597D-15 -0.61341702D-14
 -0.11063229D-13 -0.16312724D-13  0.10349650D-12  0.72745727D-13  0.35680008D-14
  0.23450209D-01  0.28126813D-14  0.44375154D-14  0.11335107D-01  0.58305357D-13
  0.44588302D-13  0.21274363D-02  0.11659929D-13  0.72963907D-14 -0.16054990D-13
  0.19092404D-14 -0.46700707D-14  0.99193581D-02  0.73819505D-02  0.27158736D-13
 -0.54775738D-14 -0.21735276D-15 -0.27260874D-14  0.90315501D-03  0.47940984D-03
  0.71905459D-14
MO    4     MO 0.0        OCC NO =    1.9749851  ORB. ENERGY =    0.000000
  0.33285881D-02  0.62039409D-02  0.10519654D-01  0.15920377D-01  0.19859415D-01
  0.17042333D-01  0.65263082D-02 -0.43466948D-04 -0.46637183D-03 -0.17191344D-02
 -0.50266481D-02 -0.60573554D-02  0.72967264D-02  0.92318260D-02  0.40461101D-01
  0.12839362D-01 -0.21302774D-12 -0.20656524D-12 -0.13934769D-12  0.18990130D-12
  0.18414038D-12  0.12422001D-12  0.15793042D+01  0.15313939D+01  0.10330692D+01
 -0.44489686D-13  0.86216733D-13  0.32604343D+00 -0.76527510D-14  0.18788869D-13
  0.44940004D-01 -0.25332182D-15  0.21913241D-15  0.32932690D-03  0.43744718D-01
 -0.10522845D-01 -0.42312571D-01  0.47996095D-15  0.81269818D-14 -0.10511885D-13
  0.10865672D-01  0.51717961D-02 -0.11266154D-01 -0.25306464D-16  0.24782247D-14
 -0.22303401D-13  0.14946095D-03  0.57275095D-03 -0.10919097D-02  0.88941530D-16
  0.34156334D-15 -0.81409752D-14 -0.67986949D-14 -0.26992829D-13  0.54826323D-01
 -0.10948748D-13 -0.39022046D-13  0.31850973D-01 -0.93935791D-14 -0.29108290D-13
  0.73263975D-01 -0.36586616D-16 -0.79867816D-15  0.11724312D-14  0.46581219D-02
 -0.12017569D-14  0.20202693D-14  0.25499287D-02 -0.11485871D-14  0.32963722D-14
  0.33894396D-02 -0.12750277D-15 -0.28017976D-01 -0.50531573D-01 -0.74508775D-01
 -0.46943932D-01 -0.13564880D-01 -0.12328098D-03 -0.27760202D-14  0.26059307D-01
 -0.12185506D-02 -0.12945784D-14  0.10081503D-01  0.10987908D-02 -0.25215871D-15
  0.61259033D-03  0.68899626D-03  0.17531445D-02 -0.70132058D-02  0.19865077D-02
  0.11982673D-14 -0.83354264D-15  0.54422552D-02  0.11332378D-02  0.47730277D-03
  0.11106840D-02  0.10727621D-15 -0.44534191D-16 -0.15501205D-03 -0.28017976D-01
 -0.50531573D-01 -0.74508775D-01 -0.46943932D-01 -0.13564880D-01 -0.12328098D-03
 -0.27918013D-14 -0.26059307D-01 -0.12185506D-02 -0.10261907D-14 -0.10081503D-01
  0.10987908D-02 -0.15711116D-15 -0.61259033D-03  0.68899626D-03  0.17531445D-02
 -0.70132058D-02  0.19865077D-02 -0.12786031D-14 -0.88855032D-15 -0.54422552D-02
  0.11332378D-02  0.47730277D-03  0.11106840D-02  0.65999870D-16 -0.12645183D-16
  0.15501205D-03
MO    5     MO 0.0        OCC NO =    1.9728146  ORB. ENERGY =    0.000000
 -0.72422060D-15 -0.13498281D-14 -0.22888232D-14 -0.34638906D-14 -0.43209305D-14
 -0.37080012D-14 -0.14199675D-14 -0.26017317D-16 -0.27914874D-15 -0.10289948D-14
 -0.30087205D-14 -0.36256545D-14  0.43674850D-14  0.52591360D-14 -0.36540129D-13
 -0.25688059D-13 -0.21283795D-13 -0.20638122D-13 -0.13922355D-13  0.14601301D+01
  0.14158351D+01  0.95511398D+00 -0.22095192D-12 -0.21424904D-12 -0.14453113D-12
 -0.31901961D-14  0.29218628D+00 -0.46518790D-13 -0.91954835D-15  0.32692387D-01
  0.52427465D-14 -0.57106259D-16  0.73127293D-04  0.14077412D-14 -0.53652258D-14
 -0.79963220D-14 -0.55968613D-15  0.41825824D-15  0.99574624D-15 -0.15328309D+00
  0.37136485D-14  0.19802609D-14  0.10025640D-14  0.25087053D-16  0.31329716D-15
 -0.30903811D-01  0.26032381D-14 -0.42360884D-15 -0.54792153D-15  0.20008344D-15
  0.15301808D-15 -0.17347483D-02 -0.24100014D-14  0.59217605D-01  0.87286922D-14
 -0.27760168D-14  0.25812395D-01  0.99108071D-14 -0.26855618D-14  0.47529444D-01
 -0.70086567D-14  0.10120143D-15 -0.23012040D-15  0.33026389D-02  0.14328711D-14
 -0.43584605D-15  0.12090304D-02  0.34560369D-15 -0.33130701D-15  0.45111636D-02
  0.52507906D-14 -0.22116979D-15  0.36401323D-01  0.65651286D-01  0.96802783D-01
  0.59812802D-01  0.89373491D-02 -0.12123959D-03 -0.23840655D-15 -0.18955773D-01
  0.26539285D-01 -0.84998503D-16 -0.56513591D-02  0.92960322D-02 -0.18925130D-16
  0.13977607D-03  0.23471330D-03 -0.33604720D-02  0.41340515D-02  0.57072191D-02
  0.11645573D-15 -0.46006336D-16 -0.16078029D-01 -0.64547025D-03 -0.68358298D-03
 -0.16446220D-03 -0.28882266D-16 -0.10505874D-16 -0.62854521D-03 -0.36401323D-01
 -0.65651286D-01 -0.96802783D-01 -0.59812802D-01 -0.89373491D-02  0.12123959D-03
 -0.32936750D-15 -0.18955773D-01 -0.26539285D-01  0.41345997D-15 -0.56513591D-02
 -0.92960322D-02  0.10514655D-15  0.13977607D-03 -0.23471330D-03  0.33604720D-02
 -0.41340515D-02 -0.57072191D-02 -0.11005748D-15 -0.75080408D-16 -0.16078029D-01
  0.64547025D-03  0.68358298D-03  0.16446220D-03  0.15041574D-15  0.18035950D-15
 -0.62854521D-03
MO    6     MO 0.0        OCC NO =    0.0255867  ORB. ENERGY =    0.000000
 -0.45088712D-14 -0.84037945D-14 -0.14249814D-13 -0.21565579D-13 -0.26901360D-13
 -0.23085369D-13 -0.88404699D-14  0.10901037D-15  0.11696097D-14  0.43114016D-14
  0.12606285D-13  0.15191187D-13 -0.18299394D-13 -0.23683179D-13  0.48227939D-14
  0.21503669D-13  0.30120015D-16  0.29206283D-16  0.19702386D-16  0.27347547D+01
  0.26517921D+01  0.17888833D+01 -0.64159808D-13 -0.62213432D-13 -0.41968814D-13
 -0.24697400D-14  0.47146229D+00  0.46105191D-13  0.43236203D-15  0.58013164D-01
  0.12100360D-13  0.53980813D-16  0.28894581D-02 -0.14946737D-14 -0.19375079D-13
  0.26719155D-13  0.50034062D-14  0.21505289D-15  0.80455382D-15  0.28137242D-01
 -0.14781440D-13 -0.39297099D-13 -0.27380606D-13 -0.36257843D-15 -0.37635488D-15
  0.16934801D-01 -0.83762368D-14 -0.10034575D-13 -0.73771501D-14 -0.32827647D-15
 -0.26145402D-15 -0.84838986D-02  0.37028155D-14 -0.71946402D-01 -0.81198485D-13
  0.40852488D-14 -0.17336189D+00 -0.68460973D-13  0.33652097D-14 -0.96619928D-01
 -0.55224892D-13 -0.31048043D-15  0.27174671D-15 -0.43284987D-01 -0.54419563D-14
  0.67820203D-15 -0.51052707D-01 -0.80127272D-14  0.53031876D-15 -0.48492134D-01
 -0.67310527D-14  0.55306430D-15 -0.53428117D-01 -0.96359809D-01 -0.14208248D+00
 -0.14572413D+00 -0.67547069D-01 -0.13895374D-02  0.52070543D-16  0.12727371D-01
 -0.93273527D-02 -0.84816364D-16  0.19315097D-01 -0.16422600D-01 -0.55737281D-17
  0.86169902D-02 -0.59796102D-02 -0.84621941D-03  0.34112735D-02  0.17932424D-03
 -0.84232774D-16 -0.66079517D-17  0.18935729D-02  0.22190687D-02  0.11297697D-02
  0.23526130D-02  0.46412574D-16  0.45888801D-17  0.16209776D-02  0.53428117D-01
  0.96359809D-01  0.14208248D+00  0.14572413D+00  0.67547069D-01  0.13895374D-02
  0.20956945D-15  0.12727371D-01  0.93273527D-02 -0.11976137D-14  0.19315097D-01
  0.16422600D-01 -0.20129634D-15  0.86169902D-02  0.59796102D-02  0.84621941D-03
 -0.34112735D-02 -0.17932424D-03 -0.52696609D-15 -0.27188751D-15  0.18935729D-02
 -0.22190687D-02 -0.11297697D-02 -0.23526130D-02 -0.32568987D-15 -0.28819418D-15
  0.16209776D-02
MO    7     MO 0.0        OCC NO =    0.0240584  ORB. ENERGY =    0.000000
  0.36979622D-01  0.68923935D-01  0.11687022D+00  0.17687065D+00  0.22063219D+00
  0.18933524D+00  0.72505340D-01  0.85827022D-03  0.92086763D-02  0.33944915D-01
  0.99252939D-01  0.11960462D+00 -0.14407644D+00 -0.12667961D+00 -0.65335481D-01
 -0.49856853D-01  0.87506389D-13  0.84851762D-13  0.57240498D-13 -0.11674379D-13
 -0.11320221D-13 -0.76365540D-14  0.27739078D+01  0.26897574D+01  0.18144945D+01
  0.46675634D-14 -0.20583658D-14  0.36408085D+00 -0.19159737D-14 -0.60696540D-13
  0.76004175D-02 -0.80854786D-16 -0.10370101D-14  0.89826972D-03 -0.29180640D-01
 -0.31457981D-01 -0.57955944D-02 -0.11216044D-15  0.72890280D-14  0.12987842D-13
 -0.21125344D-01  0.69344780D-02  0.30385085D-02 -0.46258529D-15  0.19008188D-14
  0.56384822D-13 -0.65588251D-02 -0.98954287D-02 -0.65257835D-02 -0.26544606D-15
 -0.90673604D-16  0.19518980D-13  0.18240538D-14 -0.96144180D-13 -0.80964146D-01
  0.47052028D-14 -0.52089978D-13 -0.10117389D+00  0.35378214D-14 -0.14247180D-12
 -0.42246736D-01  0.93603727D-16 -0.10545575D-14 -0.16495150D-14 -0.48143804D-01
 -0.64213704D-15 -0.23323370D-14 -0.47866718D-01 -0.76201970D-15 -0.53196019D-14
 -0.50232881D-01  0.51059071D-15  0.47714001D-01  0.86054165D-01  0.12688682D+00
  0.96908469D-01  0.53879639D-01  0.69651548D-03 -0.99670377D-15 -0.13516361D-01
 -0.15585482D-01 -0.77834290D-15 -0.10474553D-01 -0.12948406D-01 -0.15146322D-15
 -0.52854071D-02  0.19017141D-02  0.16208151D-02  0.43678469D-04 -0.11840453D-01
  0.10334882D-14 -0.61186710D-15  0.28011565D-01 -0.19810329D-02 -0.21471675D-02
 -0.22969760D-02  0.56959777D-16 -0.39550721D-16  0.17748470D-02  0.47714001D-01
  0.86054165D-01  0.12688682D+00  0.96908469D-01  0.53879639D-01  0.69651548D-03
 -0.87458201D-15  0.13516361D-01 -0.15585482D-01 -0.17832250D-14  0.10474553D-01
 -0.12948406D-01 -0.33606404D-15  0.52854071D-02  0.19017141D-02  0.16208151D-02
  0.43678469D-04 -0.11840453D-01 -0.15098352D-14 -0.10511204D-14 -0.28011565D-01
 -0.19810329D-02 -0.21471675D-02 -0.22969760D-02 -0.37412017D-15 -0.23480326D-15
 -0.17748470D-02
MO    8     MO 0.0        OCC NO =    0.0203568  ORB. ENERGY =    0.000000
  0.58445488D-15  0.10893278D-14  0.18471084D-14  0.27954021D-14  0.34870438D-14
  0.29924024D-14  0.11459311D-14  0.88639208D-17  0.95104053D-16  0.35057145D-15
  0.10250503D-14  0.12352355D-14 -0.14879721D-14  0.11983904D-14 -0.10516225D-12
 -0.39511386D-13 -0.31443539D+01 -0.30489656D+01 -0.20568142D+01  0.18710687D-12
  0.18143073D-12  0.12239210D-12  0.89704688D-13  0.86983373D-13  0.58678469D-13
 -0.26353245D+00 -0.15246919D-12  0.38493624D-13  0.79144531D-01  0.42305618D-13
  0.21020120D-13  0.43434849D-02  0.53332079D-14  0.24429781D-14  0.45505800D-14
 -0.14707127D-13  0.93907036D-14 -0.59490354D-14 -0.13716964D+00 -0.79112248D-14
  0.10276165D-13 -0.12239331D-13 -0.73595109D-15  0.11910728D-14 -0.52626758D-01
 -0.49841761D-13  0.35744865D-14 -0.34114740D-14 -0.19249346D-14 -0.31790185D-15
 -0.50930134D-02 -0.12284528D-13  0.65813049D-01  0.33461210D-12  0.71793110D-14
  0.42093732D-01  0.32420222D-12 -0.73515962D-16  0.66218751D-01  0.36902232D-12
  0.98809978D-14  0.17488698D-14  0.48853170D-01  0.23356264D-13  0.82572349D-14
  0.47571275D-01  0.13813789D-13  0.49244520D-14  0.52016842D-01  0.24330103D-13
  0.15611080D-13 -0.51368522D-15 -0.45415883D-14 -0.81909415D-14 -0.12077538D-13
  0.97237958D-14 -0.62728969D-14 -0.37724239D-14  0.50281237D-01  0.18842595D-13
 -0.48409215D-14  0.29467536D-01 -0.12129923D-13 -0.65528480D-14  0.57582083D-02
  0.23716045D-14 -0.24706179D-14 -0.26237919D-13 -0.34342550D-13 -0.28820974D-13
 -0.32285119D-01  0.19832985D-01  0.14468644D-13 -0.46686082D-14 -0.73832311D-15
 -0.54864290D-14 -0.21567696D-02  0.77526340D-03  0.76012237D-16  0.54108363D-14
  0.97586661D-14  0.14389147D-13  0.93121169D-13  0.75550299D-13  0.57092307D-14
  0.50281237D-01  0.19893822D-13  0.64422656D-14  0.29467536D-01  0.47226970D-13
  0.42433430D-13  0.57582083D-02  0.11883801D-13  0.96141852D-14  0.24091024D-13
  0.46937360D-13  0.32222737D-13  0.32285119D-01  0.19832985D-01  0.30685155D-13
 -0.18429992D-15  0.18684449D-14  0.32921927D-14  0.21567696D-02  0.77526340D-03
  0.59290235D-14
MO    9     MO 0.0        OCC NO =    0.0125864  ORB. ENERGY =    0.000000
  0.13768509D+00  0.25662236D+00  0.43513927D+00  0.65853702D+00  0.82147303D+00
  0.70494607D+00  0.26995689D+00  0.24857774D-02  0.26670761D-01  0.98313446D-01
  0.28746275D+00  0.34640659D+00 -0.41728345D+00 -0.63133440D+00  0.15078513D+00
  0.25847900D-01 -0.21053430D-13 -0.20414745D-13 -0.13771666D-13  0.24135843D-12
  0.23403649D-12  0.15787963D-12 -0.10287916D+01 -0.99758180D+00 -0.67296279D+00
 -0.28862019D-14 -0.16486670D-12 -0.21764593D-01  0.18861649D-14  0.26425704D-13
  0.36322567D-01  0.12072166D-15 -0.96918753D-14  0.83400095D-03 -0.75613979D-01
  0.17753482D+00 -0.14119397D+00 -0.87543525D-15  0.43725546D-14 -0.25353066D-13
  0.10056118D+00  0.13190636D+00  0.55495149D-01 -0.14022474D-14 -0.73448917D-15
 -0.17527786D-13  0.53590858D-02  0.95195967D-02  0.32162819D-02 -0.60851920D-15
 -0.38963080D-15 -0.24010144D-13  0.18170885D-14  0.36469340D-12  0.66039460D-01
  0.49762655D-14  0.36780378D-12  0.25396600D-01  0.77652169D-14  0.39259823D-12
  0.13738998D+00 -0.10967464D-14  0.13876696D-15  0.38326938D-13  0.30049756D-01
  0.13751101D-14  0.24072408D-13  0.30810411D-01  0.11517736D-14  0.27916355D-13
  0.76857258D-03  0.13009782D-14  0.28817232D-01  0.51973064D-01  0.76634252D-01
  0.15403589D-01 -0.15978100D-01 -0.42491876D-03  0.10637559D-14 -0.18153811D-01
  0.49517613D-01  0.50001853D-16 -0.10738111D-01  0.25374366D-01 -0.28068559D-16
  0.73516981D-03  0.15242550D-02 -0.85930840D-02  0.14891567D-02  0.11317286D-01
 -0.10854773D-14  0.18350714D-14 -0.40550467D-01 -0.31620676D-02 -0.16880063D-02
 -0.22663098D-02 -0.59754690D-16  0.10747945D-15 -0.40351943D-02  0.28817232D-01
  0.51973064D-01  0.76634252D-01  0.15403589D-01 -0.15978100D-01 -0.42491876D-03
  0.14718023D-14  0.18153811D-01  0.49517613D-01 -0.23301669D-14  0.10738111D-01
  0.25374366D-01 -0.44310701D-15 -0.73516981D-03  0.15242550D-02 -0.85930840D-02
  0.14891567D-02  0.11317286D-01 -0.20033951D-15  0.10930521D-14  0.40550467D-01
 -0.31620676D-02 -0.16880063D-02 -0.22663098D-02 -0.61783862D-15 -0.62262120D-15
  0.40351943D-02
MO   10     MO 0.0        OCC NO =    0.0034512  ORB. ENERGY =    0.000000
 -0.43005325D-01 -0.80154855D-01 -0.13591382D+00 -0.20569112D+00 -0.25658345D+00
 -0.22018678D+00 -0.84319838D-01 -0.29446672D-03 -0.31594347D-02 -0.11646271D-01
 -0.34053014D-01 -0.41035537D-01  0.49431653D-01  0.23188692D+00  0.13398885D-01
 -0.72607809D-02 -0.11899589D-13 -0.11538598D-13 -0.77838702D-14  0.57141298D-12
  0.55407838D-12  0.37377800D-12 -0.38125643D+00 -0.36969049D+00 -0.24939102D+00
 -0.63369710D-15 -0.57175645D-12  0.58150758D-01 -0.11517359D-14  0.12770768D-12
  0.14743264D-01 -0.10051216D-15  0.13038397D-13  0.75577686D-03 -0.58481225D+00
  0.21988500D+01 -0.14278268D+01  0.21233122D-13  0.22013077D-13 -0.17119513D-12
 -0.17533353D+00  0.40973883D+00 -0.30568818D+00  0.45475262D-14  0.25941443D-14
 -0.79665401D-13 -0.53207171D-02  0.97339790D-02 -0.70904983D-02  0.69458567D-15
  0.87799962D-15  0.17960911D-14 -0.80547374D-14  0.10274108D-11  0.21498047D-01
 -0.14103059D-13  0.10306341D-11 -0.37865459D-01 -0.12043615D-13  0.13113756D-11
 -0.18874155D+00  0.11345773D-14  0.82010256D-15  0.62279937D-13  0.15614866D-02
  0.13260549D-15  0.48816839D-14 -0.95395131D-02 -0.86999399D-15 -0.33382609D-13
 -0.76062282D-01 -0.19460460D-14  0.34889335D-01  0.62924352D-01  0.92781920D-01
 -0.42761591D-01  0.58244531D-02 -0.15456292D-05 -0.78731951D-15  0.18529368D-01
  0.15034688D+00  0.53454739D-15  0.41531561D-01 -0.19901131D-01  0.11876427D-15
  0.12307093D-03 -0.18249827D-02 -0.41454304D-01 -0.43378969D-01  0.37018182D-01
  0.43859299D-14  0.20551803D-14 -0.49232916D-01 -0.24730093D-02 -0.16136296D-02
 -0.71181874D-02  0.13693058D-15  0.40955470D-15  0.50330989D-02  0.34889335D-01
  0.62924352D-01  0.92781920D-01 -0.42761591D-01  0.58244531D-02 -0.15456292D-05
 -0.20786603D-14 -0.18529368D-01  0.15034688D+00  0.33093275D-14 -0.41531561D-01
 -0.19901131D-01  0.57356467D-15 -0.12307093D-03 -0.18249827D-02 -0.41454304D-01
 -0.43378969D-01  0.37018182D-01 -0.29102659D-14  0.24440605D-14  0.49232916D-01
 -0.24730093D-02 -0.16136296D-02 -0.71181874D-02  0.74044057D-15  0.10820363D-14
 -0.50330989D-02
END DATA
 TOTAL ENERGY =      -76.201502975381 THE VIRIAL(-V/T)=   2.00018959
